178  
Iteration 0 Energy -266.78399747
C       61.0199998939   57.6299998998   26.8099999534
C       60.1299998955   58.5599998982   27.3499999525
H       59.6599998963   59.2699998970   26.6699999536
C       59.9999998957   58.6299998981   28.7399999500
H       59.4099998967   59.4299998967   29.1799999493
C       61.6899998927   56.6799999015   27.6099999520
H       62.1899998919   55.8199999030   27.1799999527
C       61.5099998931   56.8099999012   28.9799999496
H       62.0799998921   56.1599999024   29.6399999485
C       60.5899998947   57.6899998997   29.5699999486
C       60.3699998950   57.7899998995   31.0299999461
C       59.8499998959   56.5599999017   31.5999999451
N       59.4899998966   56.5199999017   32.8699999429
C       59.0999998973   55.2199999040   33.0999999425
C       59.1899998971   54.4299999054   31.9199999445
C       59.6999998962   55.2899999039   30.9699999462
H       59.7999998960   55.1099999042   29.9099999480
H       58.7199998979   53.4599999071   31.7399999448
C       60.8199998943   58.9399998975   31.6099999450
N       60.4499998949   59.2399998970   32.8899999428
C       61.6299998929   59.9299998958   30.9799999461
H       62.0299998922   60.0699998956   29.9799999479
C       61.6499998928   60.8899998941   31.9699999444
H       62.0899998921   61.8699998924   31.8099999447
C       60.8999998941   60.4599998949   33.1099999424
C       60.5699998947   61.2499998935   34.2799999404
C       61.1999998936   62.5899998912   34.1999999405
C       62.4999998913   62.7999998908   34.6599999397
C       63.0799998903   64.0699998886   34.6899999397
C       62.4299998915   65.1899998867   34.1499999406
C       61.0799998938   64.9499998871   33.8799999411
C       60.4199998950   63.7299998892   33.9399999410
H       59.3499998968   63.6799998893   33.8299999412
H       60.4599998949   65.8399998855   33.7899999413
H       64.1199998885   64.2399998883   34.9299999393
H       63.0999998903   61.9399998923   34.9399999393
C       60.1299998955   60.6899998945   35.4499999384
N       59.6199998963   59.4399998967   35.6799999380
C       60.0199998957   61.4799998931   36.6299999363
H       60.3199998951   62.5199998913   36.7099999362
C       59.4499998966   60.6399998946   37.5399999347
H       59.1399998972   60.8499998942   38.5499999330
C       59.0699998973   59.4399998967   36.8699999359
C       58.2699998987   58.3699998985   37.4699999349
C       57.9499998993   58.6099998981   38.8799999324
C       56.6199999016   58.4899998983   39.3099999317
H       55.7599999031   58.3699998985   38.6499999328
C       56.2899999021   58.4599998984   40.6699999293
H       55.2399999040   58.3899998985   40.9099999289
C       57.3199999003   58.6699998980   41.5999999277
C       58.6499998980   58.6699998980   41.1699999284
H       59.4099998967   58.7999998978   41.9299999271
C       58.9799998975   58.6099998981   39.8199999308
H       60.0299998956   58.4299998984   39.5899999312
C       58.1399998989   57.1799999006   36.7999999360
N       58.5399998982   56.8199999012   35.5399999382
C       57.5199999000   56.1099999025   37.4999999348
H       57.1299999007   56.2099999023   38.4999999331
C       57.6399998998   55.0599999043   36.6399999363
H       57.2499999005   54.0699999060   36.8499999359
C       58.3099998986   55.5199999035   35.4599999384
C       58.4799998983   54.7699999048   34.2299999405
C       57.7199998997   53.5099999070   34.3299999403
C       58.3599998985   52.2699999091   34.3299999403
H       59.4299998967   52.2199999092   34.1399999406
C       57.6899998997   51.0799999112   34.6199999398
H       58.2399998987   50.1499999128   34.6999999397
C       56.2999999021   51.0999999112   34.7599999396
C       55.6199999033   52.2999999091   34.5899999399
H       54.5399999052   52.2299999092   34.4599999401
C       56.3199999021   53.4999999070   34.4899999400
H       55.7899999030   54.4299999054   34.4199999402
Zn      59.3199998969   58.0899998990   34.1599999406
C       61.1149998937   57.3789999002   25.2939999560
H       62.1179998920   57.1059999007   25.0399999565
H       60.4499998949   56.5859999016   25.0209999565
H       60.8439998942   58.2699998987   24.7669999569
C       63.0589998904   66.5789998842   33.9319999410
H       62.8639998907   67.1969998832   34.7829999395
H       64.1159998885   66.4749998844   33.8009999412
H       62.6339998911   67.0289998835   33.0589999425
C       56.9809999009   58.5309998982   43.0959999251
H       55.9849999027   58.8819998976   43.2699999248
H       57.0519999008   57.5029999000   43.3829999246
H       57.6699998997   59.1109998972   43.6729999241
C       55.5179999035   49.7789999135   34.8819999394
H       55.3549999038   49.3699999142   33.9059999411
H       56.0799999025   49.0839999147   35.4699999383
H       54.5749999051   49.9649999131   35.3529999385
C       51.9068499098   54.0105399061   27.2293099527
C       51.0882599112   55.0463499043   26.7562499535
H       50.6313699120   54.9797399044   25.7585499552
C       50.8550899116   56.1764599023   27.5270899521
H       50.1604399128   56.9511999010   27.2136399527
C       52.4343599088   54.1607299058   28.5081299504
H       53.0772899077   53.3593399072   28.8958499498
C       52.2451999092   55.3161399038   29.2742699491
H       52.8338399081   55.3904899037   30.1860599475
C       51.4155399106   56.3334599021   28.7895599499
C       51.3376999107   57.5863898999   29.5698599486
C       50.2909499126   57.4431999001   30.5683399469
N       50.2319199127   58.2423798987   31.6136699450
C       49.1450899146   57.7213798996   32.2884799439
C       48.5876899155   56.5340499017   31.7410799448
C       49.2985399143   56.4290199019   30.5799299468
H       49.1875199145   55.6504099032   29.8180599482
H       47.8009799169   55.8676599029   32.1041299442
C       52.2259699092   58.6336798981   29.5272699487
N       52.1576499093   59.8075498960   30.2266099474
C       53.3467999073   58.6538498980   28.6453099502
H       53.6025699068   57.9129498993   27.9046099515
C       53.9603499062   59.8772698959   28.8071699499
H       54.8290799047   60.2274098953   28.2760199508
C       53.1860499075   60.5176998948   29.8307399481
C       53.5397399069   61.8080698925   30.4079199471
C       54.2537799057   62.6637398911   29.4266399488
C       55.6029999033   62.9580898905   29.5412599486
C       56.2736699022   63.6883598893   28.5427099504
C       55.5902899034   64.0261398887   27.3667599524
C       54.2983999056   63.5463998895   27.1744099528
C       53.5964499068   62.9389998906   28.2221699509
H       52.5666199086   62.6398898911   28.0522299512
H       53.7878699065   63.7562898892   26.2264199544
H       57.2786799004   64.0822798886   28.6714999502
H       56.1244299024   62.7277298909   30.4598799470
C       53.2515399074   62.1727798919   31.6912499449
N       52.1946399093   61.7164498927   32.4410499436
C       54.0636999060   63.1358098902   32.3530699438
H       54.9924299044   63.6513098893   32.1034299442
C       53.3856199072   63.2057998901   33.5473499417
H       53.7625899065   63.8106998891   34.3755299402
C       52.2064999092   62.4143798915   33.5627199416
C       51.1639199110   62.2203698918   34.5606699399
C       51.0820299112   63.3053498899   35.5687399382
C       49.9097999132   64.0598798886   35.7152999379
H       49.0432299147   63.9383698888   35.0737499390
C       49.7798499135   64.9573898871   36.7748299361
H       48.8622999151   65.4681398862   37.0152899356
C       50.8168299117   65.1412598867   37.6879899345
C       52.0233899096   64.4550498879   37.4861599348
H       52.7437099083   64.5176598878   38.2915399334
C       52.1254899094   63.4679998897   36.4922899366
H       53.0273099078   62.8737798907   36.3994199367
C       50.2702899126   61.2042298936   34.5932099399
N       50.0922999129   60.1753998954   33.7084299414
C       49.4580299140   60.9683598940   35.7567099378
H       49.3663999142   61.5953798929   36.6341299363
C       48.6695599154   59.9016598959   35.4175199384
H       47.8623899168   59.5712098964   36.0564899373
C       49.0715899147   59.4637098966   34.1252399407
C       48.6315999155   58.2679398987   33.4195899419
C       47.5585199173   57.6307498998   34.2144299405
C       47.7474099170   56.4290299019   34.8964199393
H       48.7564299152   55.9997399026   34.9292799393
C       46.7143299188   55.6539099032   35.4515299384
H       46.9680299183   54.7038699049   35.9040199376
C       45.4056499211   56.0816699025   35.2848699387
C       45.1782599215   57.2687699004   34.5681599399
H       44.2022599232   57.7175098997   34.4386899401
C       46.2256899196   58.0600798991   34.0853899407
H       46.0533599199   59.0400998974   33.6625899415
Zn      51.3292899108   59.9036698959   32.0890399442
C       52.2798999091   52.7896899082   26.3675399542
H       53.3032699073   52.8670099081   26.0645799547
H       52.1443899093   51.8947099098   26.9390699532
H       51.6529199102   52.7585799083   25.5016499557
C       56.3521999020   64.8867598872   26.3415499542
H       56.6283399015   65.8174698856   26.7925499534
H       57.2325199005   64.3686198881   26.0253999548
H       55.7244299031   65.0726298869   25.4958599557
C       50.6744099119   66.0455598852   38.9263899323
H       50.6521399119   65.4418198862   39.8088799308
H       51.5054699105   66.7178898840   38.9738899322
H       49.7661799135   66.6065098842   38.8548799324
C       44.2016099232   55.2177799040   35.7036399379
H       43.4940999244   55.8230999029   36.2307699370
H       43.7386599240   54.8044399047   34.8314199394
H       44.5361199226   54.4247999054   36.3391799368
178  
Iteration 1 Energy -266.87569186
C       61.0651022820   57.6318510631   26.7670399651
C       60.1703505507   58.5456794664   27.3096489188
H       59.7069119896   59.2633581666   26.6414043195
C       60.0077757601   58.6034518597   28.6897411338
H       59.4025802137   59.3916329273   29.1249101771
C       61.7086069339   56.6904230096   27.5852881190
H       62.2176392203   55.8497378134   27.1381183962
C       61.5160805063   56.7833342721   28.9523637836
H       62.0661348361   56.1301554729   29.6237891176
C       60.5876928740   57.6563885707   29.5218463194
C       60.3424797318   57.7302773335   30.9828667742
C       59.8194177362   56.5480450967   31.5921753398
N       59.4498720728   56.5073727036   32.8805797094
C       59.0439320514   55.2207722346   33.1408964586
C       59.1500701387   54.4513694465   31.9429967356
C       59.6617941384   55.2736548658   30.9754046731
H       59.7633772657   55.0705238716   29.9228785385
H       58.6855655994   53.4885018554   31.7713274784
C       60.7821842451   58.8793989063   31.6011704700
N       60.4340723337   59.2202386014   32.8772216753
C       61.5996030576   59.8886359561   31.0056144077
H       61.9697059299   59.9587861386   29.9966035558
C       61.6562316360   60.8793185313   31.9584391319
H       62.0989317893   61.8582717838   31.8258541334
C       60.9053511128   60.4536956388   33.0963250447
C       60.6014667872   61.2525101862   34.2471219880
C       61.2239476756   62.5970323036   34.1991143708
C       62.5156419267   62.7975929191   34.6723241010
C       63.0664865257   64.0691109155   34.7204282120
C       62.3714261575   65.1613564217   34.1956240703
C       61.0231024789   64.9817100224   33.8884234802
C       60.4399069530   63.7298068220   33.9414871356
H       59.3744159523   63.6407950636   33.8150536235
H       60.3926487301   65.8634195779   33.7903922620
H       64.1026672121   64.2496623499   34.9729200370
H       63.1202206468   61.9412666759   34.9449909325
C       60.1520897932   60.7074460776   35.4300225942
N       59.6288757476   59.4602344726   35.6522148126
C       60.0412413709   61.4953770877   36.6251328073
H       60.3527244549   62.5251715808   36.7022599527
C       59.4596024373   60.6777209775   37.5421487665
H       59.1526850586   60.9009365393   38.5495182968
C       59.0793494509   59.4752533113   36.8640964276
C       58.2805771708   58.4355546679   37.4640740171
C       57.9439846367   58.6501760795   38.8786866605
C       56.6313097472   58.5818532175   39.3428722476
H       55.7896952833   58.5154171050   38.6596061491
C       56.3224108539   58.5467094513   40.7024848104
H       55.2803686418   58.5210592164   40.9785959360
C       57.3620980067   58.6887534051   41.6230191854
C       58.6768193865   58.6336871367   41.1693134632
H       59.4681554812   58.7105039606   41.9028003896
C       58.9709152924   58.5870417720   39.8136819457
H       60.0010492386   58.3730137727   39.5500245958
C       58.1184476960   57.2271799302   36.8119344678
N       58.5077530974   56.8497423821   35.5565150477
C       57.4892877565   56.1387340591   37.5025529323
H       57.1034566181   56.2345861121   38.4995669304
C       57.5915441317   55.0743468217   36.6597100440
H       57.2105542980   54.0811883403   36.8483452765
C       58.2595781178   55.5331500748   35.4809152830
C       58.4179264025   54.7682051270   34.2781608600
C       57.6763411371   53.4945210788   34.3525564209
C       58.3444551769   52.2732731036   34.3453792308
H       59.4153671741   52.2464581150   34.1715676721
C       57.6896131286   51.0785158667   34.6078330272
H       58.2541185421   50.1594141903   34.6829151218
C       56.3034289885   51.0719699995   34.7313229852
C       55.6031493410   52.2622865541   34.5708893673
H       54.5276269286   52.2062332662   34.4344721998
C       56.2837349091   53.4666711096   34.4918059238
H       55.7395372384   54.3930535355   34.4288448739
Zn      59.3015549060   58.0934828930   34.1572751190
C       61.1860045613   57.4159760705   25.2595422142
H       62.1998356584   57.1463541151   25.0137585120
H       60.5218904023   56.6221535052   24.9581294121
H       60.9208322207   58.3213908195   24.7378156181
C       62.9978546068   66.5354113199   34.0197102611
H       62.7927430721   67.1400647308   34.8883287501
H       64.0636225323   66.4321525310   33.8983795173
H       62.5798378092   67.0081844535   33.1466252517
C       57.0476197230   58.5466406270   43.1096333750
H       56.0660655439   58.9432813025   43.3107526107
H       57.0752992383   57.5042635690   43.3810738360
H       57.7782565721   59.0867843219   43.6892474551
C       55.5531001757   49.7478279030   34.8314952940
H       55.4066760750   49.3442779283   33.8423293109
H       56.1262476959   49.0507192812   35.4202926918
H       54.5949187009   49.9087261629   35.2979414944
C       52.0680722395   54.1016477604   27.0824087319
C       51.2133332326   55.1086964283   26.6393989418
H       50.7842467138   55.0705686769   25.6366386116
C       50.9116778610   56.1789882383   27.4591453575
H       50.1874131653   56.9281739031   27.1591258240
C       52.5707407951   54.1972562562   28.3733583471
H       53.2409416630   53.4165875066   28.7370179935
C       52.3101442657   55.2936659924   29.1897032616
H       52.8563662767   55.3728051116   30.1223081016
C       51.4425574038   56.2886065505   28.7389382604
C       51.2758766462   57.4950073923   29.5804038507
C       50.2552203173   57.4006407843   30.5879640084
N       50.1546342211   58.1952517698   31.6638412051
C       49.0757236891   57.7460889039   32.4001772376
C       48.5801107693   56.5602664462   31.7772651283
C       49.2604687462   56.3877358761   30.6052399739
H       49.1339039724   55.5997933985   29.8676920284
H       47.7991189799   55.9046707233   32.1376527736
C       52.1594630361   58.5459388696   29.5416407000
N       52.1005824330   59.7292090324   30.2370445224
C       53.2809397940   58.5643650334   28.6579968329
H       53.5207145883   57.8113283478   27.9278693800
C       53.8990179734   59.7760098921   28.8113474866
H       54.7662827115   60.1183625849   28.2789081711
C       53.1455802720   60.4441830129   29.8293314582
C       53.5183202454   61.7223665314   30.3741583752
C       54.2530841817   62.5895956221   29.4216188641
C       55.6022006057   62.8869975035   29.5480254901
C       56.2593155803   63.6285420479   28.5677197530
C       55.5919916368   63.9899997400   27.3965813861
C       54.3045206031   63.5175888672   27.1915286737
C       53.6113402462   62.8905986888   28.2198326301
H       52.5850305343   62.5938040224   28.0459599074
H       53.7967817571   63.7423936595   26.2535144107
H       57.2619286819   64.0117076750   28.7136344379
H       56.1258167947   62.6399707211   30.4603103574
C       53.2213056137   62.1002407693   31.6667885935
N       52.1663720653   61.6607296495   32.4214442968
C       54.0064376632   63.0723659977   32.3688609488
H       54.9258264323   63.5481877609   32.0657980970
C       53.3644260459   63.1932125005   33.5737275923
H       53.6899054383   63.7900126301   34.4225753750
C       52.1971085760   62.3890003748   33.5526932819
C       51.1798258819   62.2325100824   34.5512809501
C       51.1063581367   63.3212385162   35.5538375006
C       49.9453684574   64.0772846674   35.6911787754
H       49.0952505769   63.9363988379   35.0359467450
C       49.8197290625   64.9828197838   36.7334671067
H       48.8899204426   65.4900738000   36.9381657400
C       50.8528540239   65.1713366985   37.6447288543
C       52.0515070139   64.4784500924   37.4569794220
H       52.7906615094   64.5307450200   38.2449094516
C       52.1406288992   63.4947439971   36.4760203064
H       53.0379099836   62.8979290960   36.3890966834
C       50.2617456480   61.2174121762   34.6056350086
N       50.0671767429   60.1801537872   33.7317119054
C       49.4420642363   61.0020719695   35.7721234747
H       49.3810170805   61.6554300256   36.6258710100
C       48.6316313209   59.9441848144   35.4787313237
H       47.8184940001   59.6043804331   36.1001072338
C       49.0265794744   59.4847708008   34.1907055669
C       48.5522467365   58.2973974366   33.5399050691
C       47.4703300307   57.6566911698   34.3229322229
C       47.6812789455   56.4580111008   34.9919499728
H       48.6871236598   56.0360620055   35.0265090369
C       46.6519243498   55.6901355430   35.5378559182
H       46.9024566405   54.7409587757   35.9887777094
C       45.3422387775   56.1110100307   35.3801189521
C       45.1069670641   57.2923247880   34.6776115937
H       44.1137940168   57.7064551170   34.5710698041
C       46.1407030476   58.0843076212   34.1973071330
H       45.9570954496   59.0626945262   33.7776100885
Zn      51.2755383433   59.8552727433   32.1023234530
C       52.5061833885   52.9615474630   26.1722474900
H       53.5369855098   53.1047714873   25.8918495167
H       52.4048478894   52.0238617121   26.6943423788
H       51.8921233893   52.9480914593   25.2872904134
C       56.3400931076   64.8573555773   26.3897012207
H       56.6170579891   65.7881351717   26.8570458328
H       57.2282329122   64.3435422013   26.0608620583
H       55.7068527407   65.0568452634   25.5410222264
C       50.7073310959   66.0850206257   38.8560134115
H       50.6777303315   65.4888895824   39.7531483629
H       51.5467232533   66.7593926765   38.9011502298
H       49.7957058319   66.6535632377   38.7733581499
C       44.1593358429   55.2455751447   35.8001589949
H       43.4446810211   55.8465166122   36.3383499245
H       43.6899207360   54.8311340299   34.9226659617
H       44.5042465698   54.4452309241   36.4338288692
178  
Iteration 2 Energy -266.94238121
C       60.9822089887   57.5096352677   26.7346927779
C       60.0931949127   58.4206867288   27.2764539216
H       59.6049075018   59.1406202884   26.6402996814
C       59.8994363257   58.4890461655   28.6400605503
H       59.2579906215   59.2495111028   29.0623145986
C       61.6097463473   56.6059182137   27.5875559695
H       62.1752628068   55.8016331863   27.1503501871
C       61.4205890637   56.6679845774   28.9510731999
H       61.9604787896   56.0146972980   29.6240808791
C       60.5044418601   57.5629719712   29.4836660392
C       60.2539800835   57.6410244432   30.9424162439
C       59.7280006143   56.5478640913   31.6133756949
N       59.3655565439   56.5199030930   32.9271072134
C       58.9475543515   55.2455218068   33.1775914431
C       59.0396887875   54.4319373672   31.9946255770
C       59.5179266314   55.2566513849   31.0349317674
H       59.6276060419   55.0286071996   29.9949728196
H       58.6280880180   53.4525530502   31.8696104503
C       60.6669909110   58.8064043459   31.5974605093
N       60.3590064807   59.1863250283   32.8720796170
C       61.4721689576   59.8440762302   31.0179989882
H       61.8035516846   59.8094361621   30.0049597855
C       61.6004951014   60.8566910109   31.9105812331
H       62.0670331702   61.8162754654   31.8033730878
C       60.8771266354   60.4315660041   33.0642617481
C       60.6581393253   61.2335220094   34.1866409475
C       61.2596111089   62.5874896587   34.2206549437
C       62.5460326185   62.7482112008   34.7105378022
C       63.0985694485   64.0060799134   34.8045601135
C       62.4053683497   65.1164222947   34.3585954514
C       61.0703083739   64.9613348221   33.9960739885
C       60.4861479188   63.7131178376   33.9616377710
H       59.4314206017   63.6070343411   33.7506840233
H       60.4551064388   65.8390036077   33.8633005344
H       64.1264447887   64.1327855533   35.1144325564
H       63.1283302983   61.8777495012   34.9733512162
C       60.1648481065   60.7436232223   35.3914642837
N       59.6180659824   59.5067349421   35.6119294513
C       60.0404444839   61.5540795396   36.5872483079
H       60.3799137763   62.5643937529   36.6631043288
C       59.4152027049   60.8001940219   37.5171169128
H       59.1080622981   61.0709255412   38.5094240063
C       59.0881890940   59.5609491178   36.8613858929
C       58.3517147234   58.5438793395   37.4692825550
C       57.9851136844   58.7436649301   38.8852170542
C       56.6789157428   58.6236087516   39.3203126340
H       55.9098261252   58.4888670346   38.5739148465
C       56.3559696104   58.6354627582   40.6643452194
H       55.3268780507   58.5505582510   40.9722327908
C       57.3442229497   58.8609168317   41.6098141705
C       58.6645581577   58.9103388566   41.1905299263
H       59.4544763237   59.0700346820   41.9099028899
C       58.9845888673   58.8344200161   39.8470229333
H       60.0211170980   58.7486655179   39.5645303598
C       58.1479978897   57.2883833992   36.8833610255
N       58.4960737090   56.8958523720   35.6276477734
C       57.5568379621   56.1586445561   37.5720987383
H       57.1967894925   56.1845784468   38.5776063766
C       57.6255242998   55.0937973723   36.7345490946
H       57.2870439997   54.0935590266   36.9111629267
C       58.2262695675   55.5595132789   35.5216063160
C       58.3535364297   54.7948080812   34.3513919366
C       57.7019124055   53.4691840179   34.3532838740
C       58.4260435751   52.2861165856   34.2767165944
H       59.4951283836   52.3293345656   34.1269035136
C       57.8013900686   51.0655662699   34.4204703440
H       58.3952033463   50.1654644327   34.4277231401
C       56.4221516438   50.9888985710   34.5344302333
C       55.6854430559   52.1669676096   34.4793214744
H       54.6112796282   52.1347965841   34.3942274065
C       56.3232993986   53.3873281262   34.4674983365
H       55.7428667672   54.3011980287   34.4743164692
Zn      59.2693817942   58.1014687253   34.1899988346
C       61.1228198442   57.3462352908   25.2497939978
H       62.1488354775   57.0814709900   24.9954015664
H       60.4589258333   56.5493742650   24.9119036558
H       60.8554637944   58.2683291169   24.7319088855
C       63.0433005845   66.4679818637   34.3195518848
H       62.8213351273   67.0169180343   35.2375905285
H       64.1252051834   66.3748957496   34.2233823359
H       62.6557740981   67.0325447520   33.4728249169
C       57.0186064913   58.7791078612   43.0703117575
H       55.9962595118   59.1105706462   43.2502853621
H       57.1174881670   57.7440975366   43.4000092058
H       57.7019162076   59.3990059705   43.6523645861
C       55.7330302135   49.6594574716   34.5551593855
H       55.5878458766   49.3110229937   33.5313053934
H       56.3380290277   48.9280809491   35.0911426432
H       54.7599840576   49.7416766234   35.0392878134
C       51.9492329570   54.1512857096   27.0816001472
C       51.0899488705   55.1593936219   26.6851817293
H       50.6434548537   55.1229729961   25.7058139866
C       50.8171702326   56.2146934208   27.5275613394
H       50.0985392753   56.9680958543   27.2388892673
C       52.5116272914   54.2099719920   28.3473474035
H       53.1796140647   53.4285139829   28.6740315670
C       52.2722014111   55.2791889300   29.1871661081
H       52.7878248040   55.3770440204   30.1276923097
C       51.3996007955   56.2817765351   28.7857475923
C       51.2213035856   57.4606358711   29.6597605499
C       50.2532707273   57.3812724586   30.6620027243
N       50.1747126217   58.2202668906   31.7225527709
C       49.1175347364   57.7246063814   32.4409663130
C       48.5324292775   56.5287071451   31.8961687070
C       49.2526413086   56.3594297963   30.7598563689
H       49.1305855645   55.5722108844   30.0499286897
H       47.7383336099   55.9307022684   32.2944487953
C       52.1244555704   58.5096156003   29.5503111110
N       52.0824288008   59.7042219896   30.2320919636
C       53.2222416835   58.5370183712   28.6266997999
H       53.4428902501   57.7634348976   27.9178039215
C       53.8306285010   59.7407961639   28.7593592986
H       54.6833324492   60.1050438203   28.2252165024
C       53.1289581080   60.4454055308   29.7893337512
C       53.5293328798   61.6894592394   30.2877657070
C       54.3249780385   62.5425650255   29.3828823453
C       55.6771153353   62.8266130549   29.5521794276
C       56.3562512496   63.5707747220   28.6175708804
C       55.7388845769   63.9945528065   27.4481912972
C       54.4365757222   63.5872099611   27.2185868112
C       53.7246438324   62.9137856586   28.1853715636
H       52.6963482509   62.6480313910   27.9993959643
H       53.9490061411   63.8633051042   26.2975998456
H       57.3725481656   63.8775742847   28.8073447287
H       56.1864734494   62.5172822726   30.4527430082
C       53.2134155538   62.1071562586   31.5882229897
N       52.1799096176   61.6776796239   32.3656432005
C       53.9190340282   63.1242803091   32.3218392831
H       54.7987916781   63.5915887071   31.9523785326
C       53.3153832603   63.2974388743   33.5229519713
H       53.6042825502   63.9385259606   34.3294380544
C       52.1954233314   62.4196184707   33.5230212436
C       51.2397843742   62.2974181695   34.5324245673
C       51.1273991207   63.3451868000   35.5726068374
C       49.9587519189   64.0768292071   35.6764470747
H       49.1772112272   63.8997495007   34.9537054808
C       49.7857252543   64.9821005099   36.7002551816
H       48.8284257382   65.4763129217   36.7965253272
C       50.7748309079   65.1831922355   37.6488394305
C       51.9703935256   64.4859702085   37.5187003943
H       52.7199572925   64.5425195589   38.2945411035
C       52.1122785377   63.5357703947   36.5336805568
H       53.0189602217   62.9542963382   36.4824552994
C       50.3028385095   61.2629593143   34.5993105459
N       50.1157715556   60.2310171268   33.7211258545
C       49.4386879110   61.0477432683   35.7325212989
H       49.3724892927   61.7078223653   36.5716489446
C       48.6625320254   59.9666493917   35.4656805496
H       47.8583179483   59.5662327649   36.0490425301
C       49.0802145753   59.4771775369   34.1872158720
C       48.6095139830   58.3018465813   33.5926434288
C       47.5188663577   57.6023648135   34.3088078936
C       47.7808628461   56.4028020403   34.9449022328
H       48.7935106189   56.0294128948   34.9887411343
C       46.7598387639   55.6369206248   35.4729327481
H       46.9944825563   54.6919714571   35.9359914060
C       45.4418243546   56.0406416058   35.3429802083
C       45.1810743365   57.2249600275   34.6783067007
H       44.1546709253   57.5586056971   34.6123438952
C       46.1927435552   58.0178495151   34.1944409070
H       45.9781707157   58.9861089793   33.7682781493
Zn      51.2833113740   59.8822808951   32.0928599939
C       52.3175924356   53.0426929512   26.1499135394
H       53.3486038730   53.1753418552   25.8189786775
H       52.2353288238   52.0807952152   26.6571658438
H       51.6627912168   53.0439952497   25.2787942744
C       56.4920528882   64.8357702513   26.4672763850
H       56.8099888527   65.7589551738   26.9517835798
H       57.3762302180   64.3017920012   26.1156550227
H       55.8631069857   65.0818917110   25.6113568022
C       50.5722756687   66.1086136636   38.8055811855
H       50.5008266777   65.5293398901   39.7274081432
H       51.4158926163   66.7945393826   38.8883253963
H       49.6563240253   66.6857073021   38.6785904234
C       44.3090557726   55.1684817469   35.7841824745
H       43.5839583421   55.7506420378   36.3540775302
H       43.8107759542   54.7510329419   34.9084559516
H       44.6777280292   54.3522712848   36.4054091782
178  
Iteration 3 Energy -266.97616232
C       60.8534548130   57.4067938185   26.7510611502
C       59.9881502521   58.3623434211   27.2663296905
H       59.4957828198   59.0605779463   26.6065349253
C       59.7762475330   58.4782212706   28.6253014008
H       59.1081083447   59.2317894693   29.0140980340
C       61.4796213963   56.5409479952   27.6399365262
H       62.1245440849   55.7584908897   27.2678991893
C       61.2748943763   56.6439112995   29.0011773836
H       61.8097773509   55.9850685682   29.6682329153
C       60.4006971117   57.5994442671   29.5068137382
C       60.1632534732   57.7334832719   30.9586027058
C       59.6023301731   56.6551820263   31.6153012126
N       59.2531121009   56.6039681816   32.9378050611
C       58.7981593562   55.3510368620   33.1848208527
C       58.8600808334   54.5857071736   31.9656476306
C       59.3285972589   55.3917904546   30.9872977628
H       59.4585110564   55.1648228258   29.9474127826
H       58.5002434043   53.5853657075   31.8614006013